data_CHA_SI

_audit_creation_method RASPA-1.0
_audit_creation_date 2021-5-20
_audit_author_name 'David Dubbeldam'

_citation_author_name        'M. Calligaris, G. Nardin, and L. Randaccio'
_citation_title              'Cation site location in hydrated chabazites - crystal structure of potassium-exchanged and silver-exchanged chabazites'
_citation_journal_abbrev     'Zeolites'
_citation_journal_volume     3
_citation_page_first         205
_citation_page_last          208
_citation_year               1983

_cell_length_a    8.76983
_cell_length_b    8.76983
_cell_length_c    8.76983
_cell_angle_alpha 95.1908
_cell_angle_beta  95.1908
_cell_angle_gamma 95.1908
_cell_volume      665.649

_symmetry_cell_setting          trigonal
_symmetry_space_group_name_Hall 'P 1'
_symmetry_space_group_name_H-M  'P 1'
_symmetry_Int_Tables_number     1

_symmetry_equiv_pos_as_xyz 'x,y,z'

loop_
_atom_site_label
_atom_site_type_symbol
_atom_site_fract_x
_atom_site_fract_y
_atom_site_fract_z
_atom_site_charge
Si       Si     0.172155381021     0.385104042083     0.914475565171     1.1        
O        O      0.295924675562     0.778123262360     0.074111316647    -0.55       
O        O      0.225753731509     0.884608379929     0.539821061768    -0.55       
O        O      0.317033323987     0.308439012603     0.975888300106    -0.55       
O        O      0.063119209771     0.054524898388     0.382244083013    -0.55       
Si       Si     0.934029143570     0.163561069638     0.374144775068     1.1        
O        O      0.093664895046     0.287330364179     0.767163995344    -0.55       
O        O      0.559374640167     0.217159420125     0.873649112914    -0.55       
O        O      0.995441878505     0.308439012603     0.297479745588    -0.55       
O        O      0.401797661412     0.054524898388     0.043565631373    -0.55       
Si       Si     0.393698353467     0.925434832187     0.152601802622     1.1        
O        O      0.786717573743     0.085070583663     0.276371097163    -0.55       
O        O      0.893202691313     0.550780328783     0.206200153110    -0.55       
O        O      0.317033323987     0.986847567122     0.297479745588    -0.55       
O        O      0.063119209771     0.393203350028     0.043565631373    -0.55       
Si       Si     0.719059691105     0.947449052844     0.158700706496     1.1        
O        O      0.828432426254     0.819838114871     0.148302784398    -0.55       
O        O      1.014981154273     1.006386842890     0.676514392258    -0.55       
Si       Si     0.178254284895     0.710465379722     0.936489785828     1.1        
O        O      0.167856362797     0.819838114871     0.808878847855    -0.55       
O        O      0.696067970657     1.006386842890     0.995427575874    -0.55       
Si       Si     0.956043364227     0.169659973512     0.699506112706     1.1        
O        O      0.828432426254     0.159262051414     0.808878847855    -0.55       
O        O      1.014981154273     0.687473659274     0.995427575874    -0.55       
Si       Si     0.956043364227     0.710465379722     0.158700706496     1.1        
O        O      0.786717573743     0.287330364179     0.074111316647    -0.55       
O        O      0.893202691313     0.217159420125     0.539821061768    -0.55       
Si       Si     0.178254284895     0.947449052844     0.699506112706     1.1        
O        O      0.093664895046     0.778123262360     0.276371097163    -0.55       
O        O      0.559374640167     0.884608379929     0.206200153110    -0.55       
Si       Si     0.719059691105     0.169659973512     0.936489785828     1.1        
O        O      0.295924675562     0.085070583663     0.767163995344    -0.55       
O        O      0.225753731509     0.550780328783     0.873649112914    -0.55       
Si       Si     0.393698353467     0.163561069638     0.914475565171     1.1        
Si       Si     0.934029143570     0.385104042083     0.152601802622     1.1        
Si       Si     0.172155381021     0.925434832187     0.374144775068     1.1        


