data_CHA_SI

_audit_creation_method RASPA-1.0
_audit_creation_date 2021-5-20
_audit_author_name 'David Dubbeldam'

_citation_author_name        'M. Calligaris, G. Nardin, and L. Randaccio'
_citation_title              'Cation site location in hydrated chabazites - crystal structure of potassium-exchanged and silver-exchanged chabazites'
_citation_journal_abbrev     'Zeolites'
_citation_journal_volume     3
_citation_page_first         205
_citation_page_last          208
_citation_year               1983

_cell_length_a    9.459
_cell_length_b    9.459
_cell_length_c    9.459
_cell_angle_alpha 94.07
_cell_angle_beta  94.07
_cell_angle_gamma 94.07
_cell_volume      839.598

_symmetry_cell_setting          trigonal
_symmetry_space_group_name_Hall 'P 1'
_symmetry_space_group_name_H-M  'P 1'
_symmetry_Int_Tables_number     1

_symmetry_equiv_pos_as_xyz 'x,y,z'

loop_
_atom_site_label
_atom_site_type_symbol
_atom_site_fract_x
_atom_site_fract_y
_atom_site_fract_z
_atom_site_charge
O        O      0.266500000000     0.733500000000     0.000000000000    -0.55       
O        O      0.150600000000     0.849400000000     0.500000000000    -0.55       
O        O      0.250300000000     0.250300000000     0.893000000000    -0.55       
O        O      0.020400000000     0.020400000000     0.319300000000    -0.55       
O        O      0.000000000000     0.266500000000     0.733500000000    -0.55       
O        O      0.500000000000     0.150600000000     0.849400000000    -0.55       
O        O      0.893000000000     0.250300000000     0.250300000000    -0.55       
O        O      0.319300000000     0.020400000000     0.020400000000    -0.55       
O        O      0.733500000000     0.000000000000     0.266500000000    -0.55       
O        O      0.849400000000     0.500000000000     0.150600000000    -0.55       
O        O      0.250300000000     0.893000000000     0.250300000000    -0.55       
O        O      0.020400000000     0.319300000000     0.020400000000    -0.55       
O        O      0.749700000000     0.749700000000     0.107000000000    -0.55       
O        O      0.979600000000     0.979600000000     0.680700000000    -0.55       
O        O      0.107000000000     0.749700000000     0.749700000000    -0.55       
O        O      0.680700000000     0.979600000000     0.979600000000    -0.55       
O        O      0.749700000000     0.107000000000     0.749700000000    -0.55       
O        O      0.979600000000     0.680700000000     0.979600000000    -0.55       
O        O      0.733500000000     0.266500000000     0.000000000000    -0.55       
O        O      0.849400000000     0.150600000000     0.500000000000    -0.55       
O        O      0.000000000000     0.733500000000     0.266500000000    -0.55       
O        O      0.500000000000     0.849400000000     0.150600000000    -0.55       
O        O      0.266500000000     0.000000000000     0.733500000000    -0.55       
O        O      0.150600000000     0.500000000000     0.849400000000    -0.55       
Si       Si     0.103300000000     0.333100000000     0.874300000000    -0.55       
Si       Si     0.874300000000     0.103300000000     0.333100000000    -0.55       
Si       Si     0.333100000000     0.874300000000     0.103300000000    -0.55       
Si       Si     0.666900000000     0.896700000000     0.125700000000    -0.55       
Si       Si     0.125700000000     0.666900000000     0.896700000000    -0.55       
Si       Si     0.896700000000     0.125700000000     0.666900000000    -0.55       
Si       Si     0.896700000000     0.666900000000     0.125700000000    -0.55       
Si       Si     0.125700000000     0.896700000000     0.666900000000    -0.55       
Si       Si     0.666900000000     0.125700000000     0.896700000000    -0.55       
Si       Si     0.333100000000     0.103300000000     0.874300000000    -0.55       
Si       Si     0.874300000000     0.333100000000     0.103300000000    -0.55       
Si       Si     0.103300000000     0.874300000000     0.333100000000    -0.55       


